[Molden Format]

[FREQ]
        -384.8319238404
         124.7677121671
         184.3538301055
         237.3185703697
         298.3458899734
         385.2782322544
         399.1695787887
         881.8664964082
         940.2817941434
        1028.4100989842
        1042.5550505097
        1095.5704756377
        1136.1836076965
        1176.7329727184
        1224.6248019545
        1292.6754590408
        1401.0833463442
        1447.6824856600
        1495.1525294235
        1501.0136193221
        1552.1724009836
        3001.0606163587
        3047.7717051227
        3055.5696845436
        3131.4318890120
        3147.7803892474
        3278.4086170346

[FR-COORD]
C          0.3444342937       -1.1584090775       -0.0650235684
C          0.3444342937       -1.1584090775        2.6753655430
CL         0.3444342937        3.2239942137       -1.2328740765
H          2.1690958356       -1.1982679282       -0.9789869770
C         -2.0093531018       -1.5638929027       -1.6185052447
O          0.5548674353       -3.6906320185        1.9370014886
H          1.9975800137       -0.3456965612        3.6379327614
H         -1.4250201051       -0.6125403167        3.6225072579
H         -1.6059008916       -1.1667837802       -3.6063001430
H         -2.6787802173       -3.5138990656       -1.4173471767
H         -3.4912960620       -0.2468812661       -1.0315980364

[FR-NORM-COORD]
vibration 1
          -0.0288677346        0.7045527325       -0.2210719177
           0.0277999898       -0.1563960554       -0.1632842018
          -0.0025802043       -0.1193261333        0.0339349665
           0.0038251108       -0.1044721098       -0.1198510751
          -0.0126491829        0.0581250327       -0.0529373578
           0.0175131362       -0.1740117338        0.2768769121
          -0.0270746760       -0.0205567852       -0.1014619139
           0.0529783474        0.0071871755       -0.1228868174
          -0.1606607439       -0.0947858401       -0.1186050025
           0.2861565620       -0.0033400360        0.1904781031
          -0.1803194353       -0.1009323664       -0.0925855299
vibration 2
           0.0286603317       -0.0422332889       -0.0462414330
           0.0740000351        0.0792837778       -0.0510572028
          -0.0121120239       -0.0260665146        0.0347184457
           0.0156747690       -0.1269264843       -0.0770263975
           0.0207079259       -0.0179732112       -0.0361351751
          -0.0858278418        0.0357260843        0.0444493286
           0.1419986198        0.0213108801       -0.1184730236
           0.1241429341        0.2278416019       -0.0462013008
          -0.1159017140        0.5012218990        0.0425750377
           0.2864547826       -0.1533031178       -0.4557441839
          -0.1388893133       -0.3598546958        0.3335624136
vibration 3
          -0.0259410779       -0.0674415842       -0.1128987291
           0.0330641316        0.1455972094       -0.1271632213
           0.0152521193       -0.0320171220        0.1094875896
          -0.0439406003       -0.1075634130       -0.1495709017
          -0.0535277210       -0.1003966467       -0.0682471054
           0.0062454920        0.0878034986        0.0369085080
           0.0623908077        0.2137139706       -0.2402479726
           0.0603605480        0.2218600892       -0.1238073610
           0.0283233847       -0.5599911133       -0.1478145142
          -0.2787660686        0.0170150234        0.3119371687
           0.0958358192        0.1971893597       -0.3642067662
vibration 4
          -0.1203105668        0.0231192757       -0.0222813288
          -0.1659770300        0.0307747921       -0.0262940842
           0.0910519034       -0.0042034228        0.0197125715
          -0.1293514885        0.1443903517       -0.0313090431
          -0.1341247727       -0.1035854126        0.0303083164
           0.1898336410        0.0597437618       -0.0347410775
          -0.3129309047        0.2568332355        0.0285964866
          -0.2765733397       -0.2222803610       -0.0821311185
          -0.2953839833        0.2082909384        0.0614719889
           0.1322746321       -0.2164759122       -0.1796335598
          -0.2843137895       -0.3814211652        0.2879006570
vibration 5
          -0.0602071831       -0.0861455211       -0.0702420139
           0.0653864502       -0.1390442753       -0.0588535546
           0.0507875266        0.3198980599       -0.0459392007
          -0.0805007106       -0.1875300619       -0.1132591597
          -0.0516309258       -0.3185669248       -0.0026665170
          -0.0808591392       -0.2020515754        0.2150507930
           0.1487122723       -0.1257963011       -0.2026547872
           0.1546006728        0.0367484874        0.0153974387
          -0.1158242719       -0.3689142024       -0.0270972015
           0.1129173402       -0.3576897807        0.0913079935
          -0.1457124667       -0.4153081888       -0.0138695601
vibration 6
           0.0273803692       -0.1872111737       -0.0674110762
          -0.0638765118       -0.0251879926       -0.0811964280
          -0.0276106034        0.0158455743       -0.0110228594
           0.0306154136       -0.2344301004       -0.0597778632
          -0.0375238995        0.2151722881       -0.0696920631
           0.1492406808       -0.0954945760        0.2226118254
          -0.2025413741        0.2016489687       -0.0398095343
          -0.1741060732       -0.0572339315       -0.2624543106
          -0.0322110590        0.3631854394       -0.0359779116
          -0.3260905498        0.2867555652       -0.2559109879
           0.1751343260        0.3728238372        0.1026388955
vibration 7
           0.2013155496       -0.0076151334       -0.0880122133
          -0.1077994892        0.0108140102       -0.1071583821
          -0.0102050990        0.0124289668        0.0038679024
           0.2125002410       -0.0659063040       -0.0658839100
           0.0515425493       -0.0232714760        0.1870165932
          -0.0628610651       -0.0071636865       -0.0385819499
          -0.2570290944       -0.0298558999        0.1776728301
          -0.2653097317        0.0882293387       -0.4403606762
          -0.2945155582       -0.0884765751        0.1046389812
           0.0509051020        0.0001401867        0.3815366927
           0.1780015875        0.0173110113        0.4176019905
vibration 8
           0.1139995952        0.0167327508       -0.0409139704
           0.0725383278       -0.0625513257        0.1290527187
          -0.0011448489        0.0048519357        0.0017873955
           0.0749731533       -0.3412972487       -0.1274659060
          -0.1340162584       -0.0331747574       -0.1192248518
           0.0058238140        0.0968306504        0.0161463860
          -0.1120113827       -0.3184964652        0.6809676715
          -0.1137518157       -0.0108644699       -0.2128950564
          -0.2622213435       -0.0475612207       -0.1532139363
          -0.1623396052       -0.0244636915       -0.0762985227
          -0.1027204038       -0.0218788036       -0.0592300823
vibration 9
          -0.0483721353        0.0010962257        0.0327289502
           0.0371212039        0.0303799321       -0.0305379305
          -0.0012533255        0.0040230283       -0.0009670856
          -0.1884365768       -0.4365841146       -0.2242116505
          -0.0004017813        0.0342830451        0.0873642104
           0.0127991006       -0.0277817738       -0.0250581091
          -0.1093062340       -0.0020872420        0.2250192608
          -0.1289355694        0.1093342021       -0.3863568963
           0.4620769398       -0.0245082450        0.1659918098
           0.1964564627       -0.0524730340       -0.0910534899
          -0.2527521166       -0.0753366206       -0.3244621373
vibration 10
           0.0339125325        0.0313529001        0.0330934829
           0.0181341839        0.0430186716       -0.0195454522
           0.0028543849       -0.0045049846       -0.0001051428
           0.0197492601        0.6497166459       -0.0162236497
          -0.0573783794       -0.0732899958        0.0176691950
           0.0048614926       -0.0592518595        0.0045038314
           0.0107572536       -0.1703618138        0.1551442181
          -0.0347111706        0.3203196635       -0.2762142093
           0.1876698541        0.1588234415        0.1074405029
          -0.3585996701        0.0022766782       -0.3097590598
           0.0624226774        0.1230282589       -0.0999168562
vibration 11
          -0.0321156537        0.0473393350       -0.0562031456
          -0.0121670055       -0.1065887467       -0.0245885404
          -0.0005818999        0.0044623106        0.0001213603
          -0.0547630093       -0.3270945062       -0.0893139386
           0.0489403828       -0.1073447918        0.0827570892
          -0.0135220780        0.1161104177        0.0077275737
          -0.0014402484       -0.0017591689       -0.1033298220
           0.0232006938       -0.2375334571        0.1394300566
           0.3097166374        0.2667601586        0.2059956952
          -0.4543642880        0.0302066353       -0.3593747813
           0.3569870690        0.2554420609        0.0563379887
vibration 12
          -0.0172323163       -0.0872319900       -0.0780752124
          -0.0055591797       -0.1607719622       -0.0584855164
           0.0018298611       -0.0080493393        0.0017841906
          -0.0909908151        0.6562435352       -0.2451066172
           0.0097997161        0.0817028210        0.0529319304
          -0.0114161220        0.1450195107        0.0745395353
           0.0481593227       -0.3573629628        0.0397989343
           0.0334757870       -0.0522077443       -0.0089787237
           0.1898381292       -0.1346817140        0.0472895133
           0.3406875597       -0.0339261268        0.0862630494
          -0.2487882662       -0.1202200801       -0.1684155726
vibration 13
          -0.0179247252        0.0055797457       -0.0014352946
          -0.1222617795       -0.0116771464        0.0104592101
          -0.0004757229        0.0021697562       -0.0002888189
          -0.0105227635       -0.2776346001        0.0328040523
           0.0151749881        0.0021408997       -0.0012548634
           0.0710973037        0.0090569213       -0.0108855256
           0.2281901370       -0.5840792524       -0.1302410216
           0.1358921203        0.6724973068        0.1242172652
          -0.0223138823        0.0056467201       -0.0066772872
           0.0124241801        0.0070436673        0.0331336279
           0.0329614379        0.0046108442        0.0370410317
vibration 14
           0.1955552153        0.0075894648       -0.0073240225
          -0.0757933456       -0.0065690358       -0.0044348607
          -0.0012263851        0.0023589191       -0.0000647965
           0.3207561984       -0.1174427440        0.2166496693
          -0.1424738452        0.0167539082        0.0511885630
          -0.0031839957       -0.0014412170       -0.0030275141
           0.0744776113        0.1484800725       -0.3813616469
           0.0913538837       -0.0999211716        0.3350406952
           0.2320817813       -0.0659796230        0.0960215113
           0.0255981140       -0.0804134201       -0.2802703620
          -0.3807553584       -0.0553341717       -0.4052651956
vibration 15
           0.0144223044       -0.0082677370       -0.0820749832
          -0.0424535759        0.1597688335       -0.0134412046
           0.0000481364       -0.0011938952        0.0011963765
          -0.1118775127        0.0332418046       -0.3425747668
           0.0118140302       -0.0027171908        0.0217991950
           0.0034130161       -0.0606291514        0.0161322038
           0.0094913901       -0.4250938131        0.3778170914
           0.0842734758       -0.4293396100        0.5470915882
           0.0949734649        0.0278921181        0.0425870472
           0.0284112168       -0.0082280240       -0.0217214404
           0.0319866317        0.0336366721       -0.0230047845
vibration 16
          -0.0550974585       -0.0049075495        0.0503710708
           0.0426755181        0.0291622592       -0.1483404509
          -0.0002884446        0.0016219213       -0.0001780969
           0.2859169805       -0.0996059830        0.7601759646
          -0.0295677420       -0.0031174543       -0.0038902035
           0.0055802031        0.0287079011        0.0153744072
           0.0379905584       -0.4025681089        0.2015647606
          -0.0053583687       -0.2764970310       -0.0880627422
           0.0555869543        0.0197966045        0.0225707534
           0.0445347200       -0.0200890099        0.0466162998
           0.0027395005        0.0153942623        0.0321360646
vibration 17
          -0.0098184948       -0.0087411062       -0.0776502516
           0.0049288553       -0.0062798009        0.0545423833
           0.0000649280       -0.0001376201        0.0003456449
           0.0941510467        0.0420569291        0.1107753422
          -0.1103167404       -0.0242966659       -0.0419138399
           0.0001895268       -0.0112026386       -0.0080844418
          -0.0611097154        0.1443772077        0.0649681217
           0.0340474656        0.1443821985        0.0490628130
           0.5014172905        0.1770021937        0.1283768415
           0.4746438901       -0.1693384181        0.2817798448
           0.3233318949        0.3122365528        0.2555523754
vibration 18
           0.0949094683        0.0283206243        0.2085847993
          -0.0296782853       -0.0053101122       -0.0967282610
          -0.0002712437       -0.0006483076       -0.0009024229
          -0.2485422124       -0.0597120433       -0.4759277826
          -0.0646458594       -0.0345294255       -0.1049150618
          -0.0039651784        0.0280813918        0.0170527683
           0.1766231135       -0.2208944451       -0.3202555984
          -0.1069604157       -0.2966852940       -0.1254882862
           0.1754054272        0.2926622633        0.0181131200
           0.0121622593       -0.0000966909        0.4323985156
           0.0566841751       -0.0012975759        0.1491809304
vibration 19
          -0.0100267744       -0.0145499668       -0.0231178952
           0.0021069159       -0.0000931084        0.0140710336
           0.0001201030       -0.0002714747        0.0003866544
           0.0253347853        0.0092534461        0.0457717681
           0.0241187620       -0.0480744407        0.0254110524
           0.0008545727       -0.0010850143        0.0022234459
           0.0139612587        0.0026523799       -0.0082360365
          -0.0135025572       -0.0005361105       -0.0220189258
          -0.3668632237        0.5894676713        0.0621087421
           0.1446569586       -0.0424782835        0.2781459353
          -0.0141947331        0.2150470276       -0.5993206804
vibration 20
           0.0005843077       -0.0093114495       -0.0483219193
           0.0018853757       -0.0112097923        0.0019372932
          -0.0001992269        0.0004487115        0.0003593841
           0.0781154197        0.0080882503        0.0992877323
           0.0293491216       -0.0022314562       -0.0314457415
           0.0001256757       -0.0029331431       -0.0045616485
          -0.1165214212        0.1137159689        0.1276632254
           0.0964932882        0.1176099482        0.1294641531
           0.3097638625        0.2811891678        0.0985207535
          -0.4289728632        0.2001674982        0.4573498216
          -0.3128212652       -0.4188763469        0.0743541649
vibration 21
          -0.0207056360        0.0026691062       -0.1012591819
          -0.0019128916        0.0586805682        0.1365648237
           0.0000190669       -0.0006422836        0.0006939724
           0.0827982144        0.0245373905        0.0949055480
           0.0122895103        0.0065687603        0.0070804424
           0.0013189712       -0.0101093409        0.0041464587
           0.4459082172       -0.2776943085       -0.4103677344
          -0.3937779627       -0.3303942868       -0.4349121597
           0.1305619290        0.0140992973        0.0362929415
          -0.0907902841        0.0478867922        0.0683946870
          -0.0733088763       -0.1043999401        0.0511165672
vibration 22
          -0.0009435783        0.0028298296       -0.0056166510
          -0.0110453090        0.0296484605        0.0540878472
           0.0000079778       -0.0003329057        0.0000377550
           0.0030183640        0.0016795855       -0.0035693939
           0.0008833764       -0.0006002504        0.0001450511
          -0.0001117965        0.0023669458        0.0019414213
          -0.5286010128       -0.2350551627       -0.2759572753
           0.6655879613       -0.1791667001       -0.3312342098
           0.0037370967        0.0012834775       -0.0091964538
          -0.0008918688       -0.0038857187        0.0013078086
          -0.0091216445        0.0095639558        0.0076624324
vibration 23
           0.0014722771       -0.0003181971       -0.0010149578
          -0.0967675374       -0.0105149158       -0.0056163862
           0.0000895338        0.0000536480        0.0000199687
          -0.0354618073       -0.0006161605        0.0121250883
           0.0061617110        0.0032815030        0.0017687586
           0.0013483796       -0.0002412468       -0.0001310449
           0.6073246623        0.2864061492        0.3560567836
           0.5318856356       -0.1553447261       -0.2942335702
           0.0125252993        0.0094348985       -0.0485630771
          -0.0307930620       -0.0948844422        0.0107502165
          -0.0486891756        0.0468873251        0.0231494468
vibration 24
           0.0010821553       -0.0003851792        0.0011398224
          -0.0123416071       -0.0011614868        0.0004096000
           0.0000083910       -0.0000843708        0.0000267179
           0.0010547672       -0.0000376020       -0.0029582067
          -0.0409072399       -0.0248078553       -0.0180058106
           0.0004091224        0.0004125683        0.0000684855
           0.0688035645        0.0333047766        0.0394896139
           0.0755865008       -0.0220969065       -0.0430928106
          -0.0963792036       -0.0902325912        0.4235110064
           0.2297586437        0.7030437393       -0.0800095533
           0.3355313749       -0.3138029593       -0.1430106113
vibration 25
          -0.0004651782       -0.0021093680        0.0009115998
           0.0001057821       -0.0004704935       -0.0007248164
          -0.0001962068       -0.0000412372       -0.0001090150
           0.0048624509       -0.0026401992       -0.0028347402
           0.0156784781       -0.0876102407        0.0203492892
           0.0003309636        0.0004885354       -0.0000478722
           0.0044624956        0.0031974197        0.0040827271
          -0.0071247153        0.0020202657        0.0052966477
           0.0846923234        0.0572454891       -0.3796774845
           0.2052304914        0.6013364706       -0.0665320231
          -0.4729695096        0.4063960613        0.1996876753
vibration 26
          -0.0037658265        0.0002552537        0.0017998981
           0.0007325261        0.0002640986        0.0000316826
          -0.0000352048        0.0000054412        0.0000997875
           0.0555444941       -0.0023932233       -0.0290925398
           0.0487494369       -0.0099935578       -0.0773596921
          -0.0000566616       -0.0000935510       -0.0000788198
          -0.0048724609       -0.0018482734       -0.0017021585
          -0.0048612212        0.0015333294        0.0049977481
          -0.1561951177       -0.1624197417        0.7708172042
          -0.0232276399       -0.0972867216       -0.0023192488
          -0.4086014846        0.3765182998        0.1543878440
vibration 27
          -0.0781334493        0.0015607084        0.0393876733
          -0.0035628373       -0.0006407706       -0.0028957700
           0.0002583849       -0.0001220955       -0.0000972507
           0.8895741748       -0.0145405609       -0.4424036314
          -0.0010475666        0.0017092750        0.0055881092
           0.0009934311        0.0001448809       -0.0000877988
           0.0219860517        0.0063038315        0.0152623765
           0.0170699571       -0.0041873513       -0.0131461378
           0.0062067610        0.0080135908       -0.0481396384
          -0.0010354808       -0.0013782228        0.0010346945
           0.0266836772       -0.0235798504       -0.0088793924
