[Molden Format]

[FREQ]
        -384.8505929218
         125.5341926999
         185.1912508408
         237.5263650283
         299.2912187011
         385.0647447322
         399.3394001393
         881.9014348753
         940.1042259452
        1028.3010388887
        1042.3436126219
        1096.0590278678
        1136.1603305280
        1176.7059972511
        1224.5530690509
        1292.6129119862
        1401.3288279110
        1447.6377731363
        1495.1365782147
        1501.0290792750
        1552.2620507135
        3001.1767980268
        3047.7261840024
        3055.6187204057
        3131.4821702398
        3147.7579588028
        3278.1988109201

[FR-COORD]
C          0.3444332710       -1.1584099267       -0.0650209313
C          0.3444332710       -1.1584099267        2.6753686837
CL         0.3444332710        3.2239919853       -1.2328766149
H          2.1690944111       -1.1982533283       -0.9789858409
C         -2.0093589269       -1.5638925350       -1.6184953408
O          0.5548773922       -3.6906268176        1.9369921058
H          1.9975773268       -0.3456924467        3.6379375667
H         -1.4250255408       -0.6125515042        3.6225108017
H         -1.6059063347       -1.1668139893       -3.6062970638
H         -2.6788022475       -3.5138905839       -1.4173062772
H         -3.4912878706       -0.2468564424       -1.0316012306

[FR-NORM-COORD]
vibration 1
          -0.0288464149        0.7038965878       -0.2211226578
           0.0279846732       -0.1557220057       -0.1637547274
          -0.0025488439       -0.1192069974        0.0341857658
           0.0035169208       -0.1055507441       -0.1202544644
          -0.0128463872        0.0578659820       -0.0532051838
           0.0175049684       -0.1740552559        0.2771304928
          -0.0270200501       -0.0199948103       -0.1022117715
           0.0533598301        0.0080462057       -0.1235654084
          -0.1610775910       -0.0952033497       -0.1188745449
           0.2856898285       -0.0034637341        0.1899598191
          -0.1806270339       -0.1013052234       -0.0932968648
vibration 2
           0.0289596281       -0.0416671217       -0.0453240241
           0.0729877926        0.0782765102       -0.0500913295
          -0.0121751383       -0.0262566362        0.0339444570
           0.0163131727       -0.1253828049       -0.0755336004
           0.0210384474       -0.0167940347       -0.0351891161
          -0.0852643618        0.0354652284        0.0435346391
           0.1401654221        0.0201905906       -0.1158617241
           0.1222483139        0.2253624647       -0.0459320394
          -0.1161262941        0.5038671773        0.0437072699
           0.2873397648       -0.1524790249       -0.4558485197
          -0.1386597738       -0.3593197750        0.3358448144
vibration 3
          -0.0252259760       -0.0689306729       -0.1140127379
           0.0339883079        0.1474499800       -0.1285292395
           0.0149606143       -0.0327436107        0.1104934732
          -0.0435303166       -0.1095411791       -0.1512807663
          -0.0533356574       -0.1003908405       -0.0689282004
           0.0052714188        0.0887990280        0.0375756883
           0.0640896428        0.2150510582       -0.2427540662
           0.0618778439        0.2261923664       -0.1258332827
           0.0274320857       -0.5570611522       -0.1480506513
          -0.2779176059        0.0166012520        0.3087602257
           0.0960204637        0.1959895943       -0.3624029948
vibration 4
          -0.1209408089        0.0230808724       -0.0223677584
          -0.1661766944        0.0307528708       -0.0262512386
           0.0913020465       -0.0041419665        0.0198491046
          -0.1300106558        0.1451963799       -0.0315314644
          -0.1346170604       -0.1039934875        0.0300151308
           0.1904203747        0.0599809128       -0.0346924980
          -0.3131719489        0.2576081738        0.0281269688
          -0.2768171492       -0.2227988326       -0.0817257209
          -0.2952013192        0.2068116735        0.0610154445
           0.1313904602       -0.2166807626       -0.1789931844
          -0.2847163122       -0.3811185219        0.2865048951
vibration 5
          -0.0587919913       -0.0863930811       -0.0712948018
           0.0655307513       -0.1374212053       -0.0597685395
           0.0505140036        0.3186019863       -0.0450726406
          -0.0787302696       -0.1883721598       -0.1141805938
          -0.0509078691       -0.3186734864       -0.0018666175
          -0.0822653206       -0.2003319916        0.2139638372
           0.1495866276       -0.1259317050       -0.2029497866
           0.1542961333        0.0408240530        0.0126380988
          -0.1173935638       -0.3668181521       -0.0264120126
           0.1161745013       -0.3588500733        0.0916141736
          -0.1451108793       -0.4167718908       -0.0097960430
vibration 6
           0.0305159134       -0.1871569355       -0.0684091518
          -0.0655616618       -0.0253633209       -0.0825996850
          -0.0276821465        0.0165232362       -0.0112461440
           0.0340211904       -0.2350036162       -0.0602037940
          -0.0366208523        0.2142673400       -0.0663879970
           0.1479253041       -0.0959106754        0.2216888946
          -0.2062311991        0.2000112179       -0.0367437333
          -0.1780687961       -0.0559609090       -0.2688850202
          -0.0370448363        0.3616730852       -0.0339159286
          -0.3237201526        0.2857540600       -0.2495014816
           0.1771807886        0.3715835318        0.1096045177
vibration 7
           0.2011524914       -0.0051839590       -0.0869552900
          -0.1077470356        0.0110954808       -0.1060835599
          -0.0098748650        0.0117713795        0.0039008872
           0.2122532296       -0.0625572719       -0.0648379539
           0.0519044008       -0.0250137408        0.1881588442
          -0.0639437008       -0.0059223132       -0.0416366671
          -0.2562640183       -0.0318511010        0.1792937181
          -0.2647080500        0.0878520946       -0.4380275794
          -0.2944456599       -0.0922816593        0.1052784459
           0.0542425323       -0.0022534272        0.3851540637
           0.1762069281        0.0140940095        0.4166983894
vibration 8
           0.1141481236        0.0167490762       -0.0411723263
           0.0725492944       -0.0627933991        0.1291417393
          -0.0011573685        0.0048406305        0.0018076829
           0.0754813073       -0.3407034499       -0.1271614122
          -0.1340387924       -0.0333678734       -0.1194351905
           0.0057505043        0.0971178031        0.0162976304
          -0.1117990610       -0.3186538057        0.6809437319
          -0.1134904439       -0.0114213965       -0.2119843863
          -0.2629597167       -0.0472750743       -0.1534935674
          -0.1635857473       -0.0242764528       -0.0767198943
          -0.1017506341       -0.0214094415       -0.0583038685
vibration 9
          -0.0481914361        0.0010517332        0.0328226918
           0.0372346247        0.0305309793       -0.0303389485
          -0.0012364478        0.0040252329       -0.0009570835
          -0.1884067475       -0.4363177787       -0.2243259805
          -0.0006897432        0.0342659511        0.0870378660
           0.0128486589       -0.0277848061       -0.0250688551
          -0.1093956102       -0.0029019279        0.2262359268
          -0.1290518820        0.1095338260       -0.3866999875
           0.4611744998       -0.0248630372        0.1655115331
           0.1964914410       -0.0525581111       -0.0910331245
          -0.2531542560       -0.0756415866       -0.3245376562
vibration 10
           0.0343064787        0.0310718779        0.0336450560
           0.0181863710        0.0441161102       -0.0192605824
           0.0028574690       -0.0044987077       -0.0001224786
           0.0204780782        0.6524325988       -0.0150218018
          -0.0578558937       -0.0726367868        0.0169501581
           0.0049784991       -0.0604598707        0.0043890311
           0.0109303025       -0.1704410326        0.1557374789
          -0.0347408369        0.3228252099       -0.2772451743
           0.1847813093        0.1572147502        0.1058370332
          -0.3556564898        0.0020393795       -0.3074097796
           0.0599055000        0.1211876140       -0.1004012720
vibration 11
          -0.0318729363        0.0476588818       -0.0557915509
          -0.0117350511       -0.1058469912       -0.0248232415
          -0.0005652926        0.0043878289        0.0001238890
          -0.0548268822       -0.3196068716       -0.0899771131
           0.0484485333       -0.1078765481        0.0830740400
          -0.0135500476        0.1150063896        0.0077332985
          -0.0020116025       -0.0013392261       -0.1016094659
           0.0222265938       -0.2341663801        0.1351717164
           0.3122786850        0.2682246589        0.2071839017
          -0.4576524554        0.0302783338       -0.3620732919
           0.3570133522        0.2564320408        0.0549907356
vibration 12
          -0.0165382647       -0.0869659172       -0.0778957711
          -0.0053601676       -0.1605926972       -0.0587603593
           0.0017933697       -0.0081211300        0.0017598823
          -0.0900822150        0.6574642741       -0.2445850318
           0.0094784685        0.0816728950        0.0532227267
          -0.0116666940        0.1448116161        0.0745388366
           0.0473833420       -0.3556999014        0.0399078926
           0.0335353246       -0.0545818665       -0.0084304450
           0.1909547436       -0.1344465894        0.0479442734
           0.3388719934       -0.0336494727        0.0845303733
          -0.2498470740       -0.1203973896       -0.1699884886
vibration 13
          -0.0174191633        0.0055333558       -0.0016747383
          -0.1225982278       -0.0120781098        0.0102634311
          -0.0004799050        0.0021269757       -0.0002913957
          -0.0100300133       -0.2773951178        0.0326300758
           0.0149104159        0.0022552107       -0.0008909864
           0.0710774327        0.0095598394       -0.0107769310
           0.2284655806       -0.5850962623       -0.1310435211
           0.1364356077        0.6712173642        0.1259997487
          -0.0208690135        0.0054614043       -0.0059790496
           0.0124093883        0.0069973478        0.0322029338
           0.0318167654        0.0043681229        0.0356829119
vibration 14
           0.1955714202        0.0077532626       -0.0072520347
          -0.0752523141       -0.0063149924       -0.0041187818
          -0.0012239592        0.0023978024       -0.0000699358
           0.3209964691       -0.1183796240        0.2170519602
          -0.1425901334        0.0164626012        0.0510514425
          -0.0034601098       -0.0017317250       -0.0032039024
           0.0735409415        0.1522446655       -0.3813844291
           0.0905267024       -0.1021181262        0.3341107168
           0.2321324561       -0.0653158691        0.0960815996
           0.0252450517       -0.0805585613       -0.2802639804
          -0.3798817274       -0.0547287365       -0.4047914408
vibration 15
           0.0146670731       -0.0082458858       -0.0823402288
          -0.0425183775        0.1598189062       -0.0129811026
           0.0000577914       -0.0011754652        0.0012045091
          -0.1121883437        0.0333673445       -0.3441046689
           0.0117287113       -0.0028252643        0.0218295932
           0.0033331589       -0.0607524902        0.0160982073
           0.0094176183       -0.4233864372        0.3769168020
           0.0840976782       -0.4297469192        0.5475622318
           0.0950313175        0.0280205317        0.0426275840
           0.0284073681       -0.0084136064       -0.0221930292
           0.0322984577        0.0340166644       -0.0230388832
vibration 16
          -0.0549603186       -0.0048473739        0.0503550807
           0.0425434187        0.0295092037       -0.1484530539
          -0.0002745487        0.0016246667       -0.0001721459
           0.2854791934       -0.0998302931        0.7593110061
          -0.0295979308       -0.0033106689       -0.0038064971
           0.0055687641        0.0286563354        0.0153712712
           0.0379415854       -0.4034591696        0.2019196345
          -0.0050896602       -0.2781306744       -0.0866672141
           0.0555601459        0.0202696006        0.0228601015
           0.0443882746       -0.0201560916        0.0463303869
           0.0031296377        0.0159135556        0.0316249307
vibration 17
          -0.0098475051       -0.0086829908       -0.0773295054
           0.0049304329       -0.0065271878        0.0541921524
           0.0000519510       -0.0002038619        0.0003493695
           0.0936738772        0.0424419767        0.1102689063
          -0.1102301972       -0.0240900004       -0.0421045811
           0.0002120066       -0.0110290993       -0.0080619798
          -0.0615954152        0.1440770072        0.0654926343
           0.0345037448        0.1450465200        0.0488837205
           0.5025922042        0.1762110935        0.1283290903
           0.4737629383       -0.1686843451        0.2825897046
           0.3229341991        0.3109615210        0.2570877531
vibration 18
           0.0949328170        0.0283033172        0.2085599516
          -0.0296601728       -0.0053101283       -0.0965623375
          -0.0002650744       -0.0006263213       -0.0009083501
          -0.2488459451       -0.0595960654       -0.4765853449
          -0.0644443069       -0.0346823314       -0.1047502549
          -0.0040044531        0.0280947761        0.0170656233
           0.1768658297       -0.2208246826       -0.3206005585
          -0.1071714836       -0.2971540391       -0.1255094425
           0.1734279160        0.2935517823        0.0180185739
           0.0119911334       -0.0001693708        0.4317855048
           0.0566206319       -0.0007798064        0.1472717149
vibration 19
          -0.0101227843       -0.0146248345       -0.0233138708
           0.0021565756       -0.0003465251        0.0139990992
           0.0001167641       -0.0002763887        0.0003847057
           0.0254471380        0.0092134356        0.0460542151
           0.0240391863       -0.0480708288        0.0254090560
           0.0008506240       -0.0010676053        0.0021446754
           0.0121576032        0.0041947937       -0.0063558279
          -0.0119941682        0.0013925164       -0.0203531192
          -0.3663134189        0.5895972410        0.0622802862
           0.1454978655       -0.0426778216        0.2784763792
          -0.0137246360        0.2154459962       -0.5991196423
vibration 20
           0.0006397853       -0.0092548174       -0.0481144939
           0.0018934997       -0.0109923014        0.0018313242
          -0.0002011036        0.0004565271        0.0003644431
           0.0780872651        0.0078482780        0.0990865486
           0.0294272125       -0.0021706195       -0.0314728933
           0.0001144796       -0.0030202390       -0.0045365661
          -0.1158616887        0.1131092809        0.1272547083
           0.0959304204        0.1167286287        0.1289341912
           0.3096206567        0.2804920900        0.0982017698
          -0.4297853195        0.2004102520        0.4569985313
          -0.3133786180       -0.4195712557        0.0747057622
vibration 21
          -0.0208447784        0.0026159854       -0.1014047317
          -0.0018718707        0.0586054672        0.1366812585
           0.0000123352       -0.0006834990        0.0007020811
           0.0829275097        0.0247917011        0.0953531482
           0.0122831114        0.0064433132        0.0071808886
           0.0013319808       -0.0100470329        0.0041532586
           0.4460635562       -0.2777943449       -0.4105010062
          -0.3939373509       -0.3302092418       -0.4356354664
           0.1292607856        0.0160760923        0.0365555885
          -0.0890571620        0.0474632741        0.0694052996
          -0.0725944961       -0.1028309500        0.0490136853
vibration 22
          -0.0009054148        0.0028173513       -0.0056210744
          -0.0107714605        0.0296544183        0.0541281733
           0.0000104678       -0.0003170432        0.0000314408
           0.0027301778        0.0016187786       -0.0035335668
           0.0009087144       -0.0006469463        0.0001099262
          -0.0001274730        0.0023711901        0.0019378199
          -0.5303307797       -0.2356719228       -0.2769179199
           0.6641626632       -0.1787695953       -0.3303046731
           0.0036468207        0.0012871340       -0.0089948386
          -0.0009320144       -0.0036617545        0.0012260149
          -0.0094023377        0.0096326896        0.0078048749
vibration 23
           0.0014080252       -0.0002949300       -0.0010171866
          -0.0965166152       -0.0103985822       -0.0054903426
           0.0000888734        0.0000512503        0.0000189854
          -0.0349952694       -0.0006044606        0.0119607750
           0.0069970409        0.0037594920        0.0021728461
           0.0013457688       -0.0002493101       -0.0001255749
           0.6041792501        0.2849127726        0.3543426100
           0.5320306680       -0.1553377952       -0.2942083447
           0.0145597531        0.0113273106       -0.0576254223
          -0.0354047608       -0.1090200364        0.0123502311
          -0.0556825193        0.0534628831        0.0261267015
vibration 24
           0.0011431053       -0.0003950042        0.0011137622
          -0.0141941336       -0.0013693555        0.0003207740
           0.0000131954       -0.0000705707        0.0000217915
           0.0000449352       -0.0000972568       -0.0026402100
          -0.0407308167       -0.0248422986       -0.0180038629
           0.0004256754        0.0004099497        0.0000636160
           0.0801980977        0.0388555557        0.0462734507
           0.0860138810       -0.0251861038       -0.0486977702
          -0.0962086728       -0.0900781733        0.4227593737
           0.2292080667        0.7016748612       -0.0799446368
           0.3339012827       -0.3124255420       -0.1422278124
vibration 25
          -0.0004790521       -0.0021082178        0.0009182621
           0.0001642850       -0.0004777434       -0.0007368952
          -0.0001981991       -0.0000445797       -0.0001090554
           0.0049591565       -0.0026037638       -0.0029022936
           0.0156827529       -0.0875746659        0.0204069865
           0.0003300522        0.0004895132       -0.0000441066
           0.0043114113        0.0030619441        0.0039559636
          -0.0076142670        0.0021771709        0.0055085704
           0.0848724838        0.0573950555       -0.3804422881
           0.2051033520        0.6008021976       -0.0664663770
          -0.4729772979        0.4064724051        0.1996883648
vibration 26
          -0.0037317296        0.0002553257        0.0017752374
           0.0007251136        0.0002523599        0.0000221645
          -0.0000351301        0.0000041247        0.0000993360
           0.0551680189       -0.0023673176       -0.0289237557
           0.0487872525       -0.0100263262       -0.0773357745
          -0.0000570196       -0.0000956344       -0.0000815464
          -0.0046222875       -0.0017192439       -0.0015644073
          -0.0050646382        0.0015729736        0.0051005697
          -0.1560767002       -0.1623055367        0.7703533350
          -0.0232816607       -0.0974369665       -0.0022834442
          -0.4091010624        0.3769675858        0.1545876712
vibration 27
          -0.0781428963        0.0015717723        0.0394012014
          -0.0035275720       -0.0006089905       -0.0028902157
           0.0002561043       -0.0001330897       -0.0000948062
           0.8896421040       -0.0145289522       -0.4423609307
          -0.0010524093        0.0017211379        0.0055532171
           0.0010025856        0.0001416043       -0.0000901600
           0.0215009753        0.0059768022        0.0149845530
           0.0170743945       -0.0041631415       -0.0132374729
           0.0060629299        0.0078502978       -0.0475824740
          -0.0008893309       -0.0011732994        0.0010250155
           0.0267781581       -0.0235481824       -0.0089595178
